/*--------------------------------*- C++ -*----------------------------------*\
  =========                 |
  \\      /  F ield         | OpenFOAM: The Open Source CFD Toolbox
   \\    /   O peration     | Website:  https://openfoam.org
    \\  /    A nd           | Version:  13
     \\/     M anipulation  |
\*---------------------------------------------------------------------------*/
//
// "0.orig/solid/T"
//
FoamFile
{
    format          ascii;
    class           volScalarField;
    location        "0/solid";
    object          T;
}

dimensions      [ 0 0 0 1 0 0 0 ];

fluidTemperature 873.15;

solidTemperature 298.15;

inletVelocity   10.5;

nProcs          4;

internalField   uniform 298.15;

boundaryField
{
    cyclic
    {
        type            cyclic;
    }
    cyclicSlip
    {
        type            cyclicSlip;
    }
    nonConformalCyclic
    {
        type            nonConformalCyclic;
        value           uniform 298.15;
    }
    nonConformalError
    {
        type            nonConformalError;
    }
    empty
    {
        type            empty;
    }
    processor
    {
        type            processor;
        value           uniform 298.15;
    }
    processorCyclic
    {
        type            processorCyclic;
        value           uniform 298.15;
    }
    nonConformalProcessorCyclic
    {
        type            nonConformalProcessorCyclic;
        value           uniform 298.15;
    }
    symmetryPlane
    {
        type            symmetryPlane;
    }
    symmetry
    {
        type            symmetry;
    }
    wedge
    {
        type            wedge;
    }
    internal
    {
        type            internal;
    }
    "solid(Top|Bottom|Symmetry)"
    {
        type            zeroGradient;
    }
    solid_to_fluid
    {
        type            coupledTemperature;
        value           uniform 298.15;
    }
    "fluid(Left|Right)|solid(Left|Right)"
    {
        type            cyclic;
    }
}


// ************************************************************************* //
